# vtk DataFile Version 2.0
ugrid_2d, Created by Gmsh
ASCII
DATASET UNSTRUCTURED_GRID
POINTS 126 double
0 -0.05 0
0 0.05 0
-1 -0.05 0
-1 0.05 0
1 -0.05 0
1 0.05 0
0 -1.328728793659195e-13 0
-1 -1.328798182598234e-13 0
-0.04999999999989965 -0.05 0
-0.09999999999981467 -0.05 0
-0.1499999999997036 -0.05 0
-0.1999999999995579 -0.05 0
-0.2499999999994121 -0.05 0
-0.2999999999992664 -0.05 0
-0.3499999999991206 -0.05 0
-0.3999999999989749 -0.05 0
-0.4499999999988292 -0.05 0
-0.4999999999986943 -0.05 0
-0.5499999999988151 -0.05 0
-0.5999999999989468 -0.05 0
-0.6499999999990784 -0.05 0
-0.69999999999921 -0.05 0
-0.7499999999993417 -0.05 0
-0.7999999999994734 -0.05 0
-0.8499999999996051 -0.05 0
-0.8999999999997368 -0.05 0
-0.9499999999998684 -0.05 0
-0.04999999999989965 0.05 0
-0.09999999999981467 0.05 0
-0.1499999999997036 0.05 0
-0.1999999999995579 0.05 0
-0.2499999999994121 0.05 0
-0.2999999999992664 0.05 0
-0.3499999999991206 0.05 0
-0.3999999999989749 0.05 0
-0.4499999999988292 0.05 0
-0.4999999999986943 0.05 0
-0.5499999999988151 0.05 0
-0.5999999999989468 0.05 0
-0.6499999999990784 0.05 0
-0.69999999999921 0.05 0
-0.7499999999993417 0.05 0
-0.7999999999994734 0.05 0
-0.8499999999996051 0.05 0
-0.8999999999997368 0.05 0
-0.9499999999998684 0.05 0
1 -1.328728793659195e-13 0
0.0499999999998994 -0.05 0
0.09999999999981414 -0.05 0
0.1499999999997029 -0.05 0
0.1999999999995569 -0.05 0
0.2499999999994109 -0.05 0
0.299999999999265 -0.05 0
0.3499999999991191 -0.05 0
0.3999999999989731 -0.05 0
0.4499999999988272 -0.05 0
0.4999999999986921 -0.05 0
0.5499999999988131 -0.05 0
0.599999999998945 -0.05 0
0.6499999999990769 -0.05 0
0.6999999999992088 -0.05 0
0.7499999999993406 -0.05 0
0.7999999999994725 -0.05 0
0.8499999999996044 -0.05 0
0.8999999999997362 -0.05 0
0.9499999999998682 -0.05 0
0.0499999999998994 0.05 0
0.09999999999981414 0.05 0
0.1499999999997029 0.05 0
0.1999999999995569 0.05 0
0.2499999999994109 0.05 0
0.299999999999265 0.05 0
0.3499999999991191 0.05 0
0.3999999999989731 0.05 0
0.4499999999988272 0.05 0
0.4999999999986921 0.05 0
0.5499999999988131 0.05 0
0.599999999998945 0.05 0
0.6499999999990769 0.05 0
0.6999999999992088 0.05 0
0.7499999999993406 0.05 0
0.7999999999994725 0.05 0
0.8499999999996044 0.05 0
0.8999999999997362 0.05 0
0.9499999999998682 0.05 0
-0.325093904116604 -0.001847606304144198 0
-0.1753855805658474 0.001818350690130331 0
-0.4246144194603015 -0.001818350647920929 0
-0.07499999999985717 -0.006698729788077742 0
-0.5249999999987545 0.006698729787992311 0
-0.6753896836929624 0.001817943885080019 0
-0.7749999999994079 0.001857164393628805 0
-0.9249999999998026 0.006698729787872226 0
-0.3749109278239366 0.0007157601957986093 0
-0.2233443961262262 -0.00253134307122814 0
-0.574999999998881 -0.005115872970793425 0
-0.8249999999995389 -0.005115872970812986 0
-0.7251188327199185 -0.0007133268472234167 0
-0.2751146931054244 0.0005711889112938393 0
-0.4742715723680161 0.005437056553804463 0
-0.1257284274425763 -0.005437056470936431 0
-0.6257362797735283 -0.005440518595789569 0
-0.8757362797741863 -0.005440518595788868 0
-0.03574606206005528 0.01067844576438097 0
-0.9642539380328091 -0.01067844559764056 0
-0.03062602911181046 -0.0211394314465056 0
-0.9693739710393036 0.02113943161192237 0
0.04999999999989938 -1.328798182598234e-13 0
0.09999999999981411 -1.328728793659195e-13 0
0.1499999999997029 -1.328728793659195e-13 0
0.1999999999995569 -1.328659404720156e-13 0
0.2499999999994109 -1.328728793659195e-13 0
0.2999999999992651 -1.328728793659195e-13 0
0.349999999999119 -1.328798182598234e-13 0
0.3999999999989732 -1.328659404720156e-13 0
0.4499999999988271 -1.328728793659195e-13 0
0.4999999999986923 -1.328728793659195e-13 0
0.5499999999988131 -1.328728793659195e-13 0
0.599999999998945 -1.328728793659195e-13 0
0.6499999999990769 -1.328728793659195e-13 0
0.6999999999992088 -1.328728793659195e-13 0
0.7499999999993406 -1.328728793659195e-13 0
0.7999999999994725 -1.328728793659195e-13 0
0.8499999999996044 -1.328728793659195e-13 0
0.8999999999997362 -1.328728793659195e-13 0
0.9499999999998682 -1.328728793659195e-13 0

CELLS 252 922
2 0 6
2 6 1
2 2 7
2 7 3
2 0 8
2 8 9
2 9 10
2 10 11
2 11 12
2 12 13
2 13 14
2 14 15
2 15 16
2 16 17
2 17 18
2 18 19
2 19 20
2 20 21
2 21 22
2 22 23
2 23 24
2 24 25
2 25 26
2 26 2
2 1 27
2 27 28
2 28 29
2 29 30
2 30 31
2 31 32
2 32 33
2 33 34
2 34 35
2 35 36
2 36 37
2 37 38
2 38 39
2 39 40
2 40 41
2 41 42
2 42 43
2 43 44
2 44 45
2 45 3
2 4 46
2 46 5
2 0 47
2 47 48
2 48 49
2 49 50
2 50 51
2 51 52
2 52 53
2 53 54
2 54 55
2 55 56
2 56 57
2 57 58
2 58 59
2 59 60
2 60 61
2 61 62
2 62 63
2 63 64
2 64 65
2 65 4
2 1 66
2 66 67
2 67 68
2 68 69
2 69 70
2 70 71
2 71 72
2 72 73
2 73 74
2 74 75
2 75 76
2 76 77
2 77 78
2 78 79
2 79 80
2 80 81
2 81 82
2 82 83
2 83 84
2 84 5
3 33 85 32
3 10 86 11
3 35 87 34
3 28 88 27
3 17 89 18
3 20 90 21
3 22 91 23
3 25 92 26
3 17 99 89
3 28 100 88
3 38 101 95
3 43 102 96
3 39 101 38
3 44 102 43
3 16 99 17
3 29 100 28
3 12 98 13
3 14 93 15
3 31 94 30
3 38 95 37
3 41 97 40
3 43 96 42
3 89 95 18
3 91 96 23
3 90 97 21
3 22 97 91
3 86 94 11
3 33 93 85
3 87 93 34
3 85 98 32
3 10 100 86
3 35 99 87
3 20 101 90
3 25 102 92
3 94 98 12
3 31 98 94
3 85 93 14
3 15 93 87
3 30 94 86
3 37 95 89
3 40 97 90
3 91 97 41
3 42 96 91
3 13 98 85
3 86 100 29
3 87 99 16
3 90 101 39
3 92 102 44
3 88 103 27
3 92 104 26
3 95 101 19
3 96 102 24
3 18 95 19
3 23 96 24
3 21 97 22
3 11 94 12
3 34 93 33
3 32 98 31
3 89 99 36
3 88 100 9
3 9 100 10
3 36 99 35
3 19 101 20
3 24 102 25
3 37 89 36
3 8 88 9
3 42 91 41
3 13 85 14
3 30 86 29
3 15 87 16
3 40 90 39
3 45 92 44
3 26 104 2
3 1 103 6
3 2 104 7
3 27 103 1
3 45 106 92
3 8 105 88
3 92 106 104
3 88 105 103
3 0 105 8
3 6 105 0
3 3 106 45
3 7 106 3
3 103 105 6
3 104 106 7
3 0 6 47
3 47 6 107
3 47 107 48
3 48 107 108
3 48 108 49
3 49 108 109
3 49 109 50
3 50 109 110
3 50 110 51
3 51 110 111
3 51 111 52
3 52 111 112
3 52 112 53
3 53 112 113
3 53 113 54
3 54 113 114
3 54 114 55
3 55 114 115
3 55 115 56
3 56 115 116
3 56 116 57
3 57 116 117
3 57 117 58
3 58 117 118
3 58 118 59
3 59 118 119
3 59 119 60
3 60 119 120
3 60 120 61
3 61 120 121
3 61 121 62
3 62 121 122
3 62 122 63
3 63 122 123
3 63 123 64
3 64 123 124
3 64 124 65
3 65 124 125
3 65 125 4
3 4 125 46
3 6 1 107
3 107 1 66
3 107 66 108
3 108 66 67
3 108 67 109
3 109 67 68
3 109 68 110
3 110 68 69
3 110 69 111
3 111 69 70
3 111 70 112
3 112 70 71
3 112 71 113
3 113 71 72
3 113 72 114
3 114 72 73
3 114 73 115
3 115 73 74
3 115 74 116
3 116 74 75
3 116 75 117
3 117 75 76
3 117 76 118
3 118 76 77
3 118 77 119
3 119 77 78
3 119 78 120
3 120 78 79
3 120 79 121
3 121 79 80
3 121 80 122
3 122 80 81
3 122 81 123
3 123 81 82
3 123 82 124
3 124 82 83
3 124 83 125
3 125 83 84
3 125 84 46
3 46 84 5

CELL_TYPES 252
3
3
3
3
3
3
3
3
3
3
3
3
3
3
3
3
3
3
3
3
3
3
3
3
3
3
3
3
3
3
3
3
3
3
3
3
3
3
3
3
3
3
3
3
3
3
3
3
3
3
3
3
3
3
3
3
3
3
3
3
3
3
3
3
3
3
3
3
3
3
3
3
3
3
3
3
3
3
3
3
3
3
3
3
3
3
5
5
5
5
5
5
5
5
5
5
5
5
5
5
5
5
5
5
5
5
5
5
5
5
5
5
5
5
5
5
5
5
5
5
5
5
5
5
5
5
5
5
5
5
5
5
5
5
5
5
5
5
5
5
5
5
5
5
5
5
5
5
5
5
5
5
5
5
5
5
5
5
5
5
5
5
5
5
5
5
5
5
5
5
5
5
5
5
5
5
5
5
5
5
5
5
5
5
5
5
5
5
5
5
5
5
5
5
5
5
5
5
5
5
5
5
5
5
5
5
5
5
5
5
5
5
5
5
5
5
5
5
5
5
5
5
5
5
5
5
5
5
5
5
5
5
5
5
5
5
5
5
5
5
5
5
5
5
5
5
5
5
5
5
5
5

CELL_DATA 252
SCALARS CellEntityIds int 1
LOOKUP_TABLE default
1
1
3
3
-4
-4
-4
-4
-4
-4
-4
-4
-4
-4
-4
-4
-4
-4
-4
-4
-4
-4
-4
-4
4
4
4
4
4
4
4
4
4
4
4
4
4
4
4
4
4
4
4
4
3
3
-4
-4
-4
-4
-4
-4
-4
-4
-4
-4
-4
-4
-4
-4
-4
-4
-4
-4
-4
-4
4
4
4
4
4
4
4
4
4
4
4
4
4
4
4
4
4
4
4
4
2
2
2
2
2
2
2
2
2
2
2
2
2
2
2
2
2
2
2
2
2
2
2
2
2
2
2
2
2
2
2
2
2
2
2
2
2
2
2
2
2
2
2
2
2
2
2
2
2
2
2
2
2
2
2
2
2
2
2
2
2
2
2
2
2
2
2
2
2
2
2
2
2
2
2
2
2
2
2
2
2
2
2
2
2
2
5
5
5
5
5
5
5
5
5
5
5
5
5
5
5
5
5
5
5
5
5
5
5
5
5
5
5
5
5
5
5
5
5
5
5
5
5
5
5
5
5
5
5
5
5
5
5
5
5
5
5
5
5
5
5
5
5
5
5
5
5
5
5
5
5
5
5
5
5
5
5
5
5
5
5
5
5
5
5
5
